# vtk DataFile Version 2.0
, Created by Gmsh
ASCII
DATASET UNSTRUCTURED_GRID
POINTS 139 double
0 0 0
1 0 0
0 1 0
1 1 0
0.5 0.3 0
0.1 0 0
0.2 0 0
0.3 0 0
0.4 0 0
0.5 0 0
0.6 0 0
0.7 0 0
0.8 0 0
0.9 0 0
0 0.9 0
0 0.8 0
0 0.7 0
0 0.6 0
0 0.5 0
0 0.4 0
0 0.3 0
0 0.2 0
0 0.09999999999999998 0
1 0.1 0
1 0.2 0
1 0.3 0
1 0.4 0
1 0.5 0
1 0.6 0
1 0.7 0
1 0.8 0
1 0.9 0
0.9 1 0
0.8 1 0
0.7 1 0
0.6 1 0
0.5 1 0
0.4 1 0
0.3 1 0
0.2 1 0
0.09999999999999998 1 0
0.477091205130642 0.3929446344087537 0
0.4136129493462312 0.4645967731787313 0
0.3241073360510646 0.4985417748196108 0
0.2290790225914929 0.487003248537083 0
0.1502978503657798 0.4326245316481591 0
0.1058116365147896 0.3478631328575116 0
0.1058116365147896 0.2521368671424885 0
0.1502978503657797 0.167375468351841 0
0.2290790225914928 0.112996751462917 0
0.3241073360510645 0.1014582251803892 0
0.4136129493462311 0.1354032268212687 0
0.4770912051306419 0.2070553655912462 0
0.5030186728341017 0.4829185746762898 0
0.6546148729726544 0.9093526327744686 0
0.9069224702514568 0.6610578509353334 0
0.4472596870518649 0.9157005868203218 0
0.9185581689416766 0.3565824326225586 0
0.266412926963298 0.5755393904537437 0
0.2486318095782778 0.9146012032664446 0
0.7379789170926092 0.09583851758210615 0
0.08915490995530662 0.7578628949385109 0
0.5599199929006369 0.3868128862076452 0
0.6146963158650661 0.4680100207018719 0
0.5729829760938636 0.5589405994342973 0
0.6690658831128424 0.5460348352543813 0
0.6354157430460039 0.6332859757432059 0
0.5402296861248174 0.6471224256544789 0
0.6680284990931588 0.3658717064133176 0
0.5708413246470831 0.2293398632529117 0
0.9163865238532853 0.8410512641295806 0
0.6019856458815096 0.7240749454147112 0
0.7003828489634223 0.7083368851742269 0
0.3614412767227901 0.591843096359945 0
0.3038435284699492 0.6654145050493212 0
0.5047192258918851 0.7384484783581972 0
0.9023755461576284 0.1540603676682692 0
0.1578561174781931 0.555006322174197 0
0.5626326846598697 0.1378809369144157 0
0.646286874869193 0.1664724977621835 0
0.5778269566071998 0.8219317811881277 0
0.6624603734086347 0.2576776500849008 0
0.3953131481435447 0.673797537565614 0
0.3421735555952035 0.7529133323836839 0
0.2517948481715033 0.7424551890024293 0
0.7345926412459256 0.1950969591227644 0
0.7492599802453098 0.2946333898198192 0
0.7683312200596851 0.3909572933823247 0
0.8222165156284407 0.2292008230683586 0
0.5439944506808786 0.9138310207603693 0
0.6745553407422378 0.8037381428875963 0
0.7685128684039151 0.7775589959555882 0
0.7999639798492973 0.6841728219973569 0
0.8608427062127227 0.7578594817125115 0
0.8213036864319587 0.5884251167820573 0
0.7549763562697602 0.8654810201547309 0
0.3479481058176274 0.9154880663509501 0
0.9148321380469107 0.4499485068475655 0
0.1503406349831336 0.9155408557569673 0
0.09515119021785223 0.6517241765353883 0
0.1828976152554452 0.818563812622926 0
0.2066023677711741 0.6521732406088259 0
0.4660336839438668 0.5951320616726923 0
0.3893778610350145 0.8342162607665654 0
0.09117645129206881 0.5023834988636608 0
0.7292272519317149 0.6169068224543049 0
0.9076946430758358 0.5475391338303688 0
0.9122206573329654 0.2620054898414934 0
0.08293445459713411 0.8508325401427521 0
0.8450961894323341 0.08377132402714715 0
0.8401202870238991 0.9165909762039659 0
0.2938039659088453 0.8297063107321665 0
0.1463025931995731 0.0773308645637385 0
0.7120771420070343 0.4663104139906256 0
0.8174725993189162 0.4845244349504458 0
0.638498118948879 0.07705162742997251 0
0.4710257377691897 0.08767889982365662 0
0.8347430297000493 0.3259451269566177 0
0.4809607711353638 0.8296386812721336 0
0.07182698895534689 0.1480047292155507 0
0.1651201862742563 0.7245558627416161 0
0.8293126932518702 0.8321676646672567 0
0.4268189975336018 0.7520237830858356 0
0.07147038031051511 0.4332589424156247 0
0.7979573675175005 0.149224906109525 0
0.7492313701867652 0.5411852997746012 0
0.5544313082755876 0.06052229283360899 0
0.8507874312134476 0.4015915589519025 0
0.07320508075688764 0.9267949192431124 0
0.9267949192431122 0.07320508075688775 0
0.9273040735444944 0.9273040735444944 0
0.941095339418628 0.75 0
0.07030666174676015 0.07030666174676015 0
0.4154594426427789 0.5337535201894252 0
0.5922500380099027 0.307940421191755 0
0.06974494845839957 0.57229279427609 0
0.4727489228529877 0.6734505906453258 0
0.3858976906658286 0.06842076469421055 0
0.7499705628843177 0.9435255425687293 0

CELLS 225 900
3 64 102 53
3 100 108 61
3 62 63 53
3 6 7 49
3 60 85 79
3 61 120 100
3 49 7 50
3 79 115 60
3 41 62 53
3 106 114 97
3 44 77 45
3 81 86 68
3 77 104 45
3 86 87 68
3 80 90 54
3 77 101 99
3 94 114 106
3 55 93 92
3 54 89 80
3 20 21 47
3 20 46 19
3 92 94 55
3 20 47 46
3 67 102 64
3 102 133 53
3 107 117 88
3 51 116 52
3 52 116 78
3 78 115 79
3 101 120 99
3 21 119 47
3 68 134 81
3 78 126 115
3 57 117 107
3 71 90 80
3 72 90 71
3 99 135 77
3 98 108 100
3 88 124 76
3 49 112 6
3 63 64 53
3 62 68 63
3 9 116 8
3 46 123 19
3 55 131 93
3 76 107 88
3 72 91 90
3 92 105 94
3 116 137 8
3 96 111 103
3 90 95 54
3 95 121 110
3 7 137 50
3 114 127 97
3 47 119 48
3 94 106 55
3 76 124 109
3 100 120 84
3 63 65 64
3 103 111 83
3 72 92 91
3 88 117 86
3 110 138 95
3 91 95 90
3 37 96 56
3 35 89 54
3 26 97 57
3 16 99 61
3 39 98 59
3 17 99 16
3 59 96 38
3 26 57 25
3 56 89 36
3 39 59 38
3 27 97 26
3 37 56 36
3 35 54 34
3 16 61 15
3 38 96 37
3 40 98 39
3 36 89 35
3 29 55 28
3 12 60 11
3 31 70 30
3 24 76 23
3 92 93 91
3 65 66 64
3 66 67 64
3 71 75 67
3 41 53 42
3 4 62 41
3 85 86 81
3 66 71 67
3 71 80 75
3 43 58 44
3 66 72 71
3 79 81 69
3 85 88 86
3 52 69 4
3 73 82 74
3 83 84 74
3 82 83 74
3 43 73 58
3 79 85 81
3 73 74 58
3 74 101 58
3 52 78 69
3 98 100 59
3 58 77 44
3 78 79 69
3 8 137 7
3 58 101 77
3 73 102 82
3 27 106 97
3 57 107 25
3 55 106 28
3 84 101 74
3 24 107 76
3 68 113 63
3 99 120 61
3 83 111 84
3 15 108 14
3 87 113 68
3 13 109 12
3 96 103 56
3 72 105 92
3 48 119 112
3 66 105 72
3 59 111 96
3 84 111 100
3 62 134 68
3 53 133 42
3 63 113 65
3 60 115 11
3 118 122 75
3 65 105 66
3 93 131 70
3 28 106 27
3 61 108 15
3 89 118 80
3 25 107 24
3 12 109 60
3 56 118 89
3 33 110 32
3 95 138 54
3 80 118 75
3 87 114 113
3 6 112 5
3 18 135 17
3 86 117 87
3 54 138 34
3 29 131 55
3 48 112 49
3 42 133 43
3 70 131 30
3 2 128 40
3 14 128 2
3 1 129 13
3 23 129 1
3 43 133 73
3 60 124 85
3 3 130 31
3 32 130 3
3 100 111 59
3 4 134 62
3 91 121 95
3 11 115 10
3 69 134 4
3 104 135 18
3 119 132 112
3 105 125 94
3 19 123 18
3 77 135 104
3 5 132 0
3 0 132 22
3 94 125 114
3 70 121 93
3 33 138 110
3 45 123 46
3 103 122 118
3 18 123 104
3 22 119 21
3 97 127 57
3 87 127 114
3 114 125 113
3 93 121 91
3 103 118 56
3 10 126 9
3 82 122 83
3 84 120 101
3 110 121 70
3 115 126 10
3 108 128 14
3 13 129 109
3 83 122 103
3 51 137 116
3 85 124 88
3 40 128 98
3 31 130 70
3 76 129 23
3 113 125 65
3 30 131 29
3 104 123 45
3 17 135 99
3 81 134 69
3 75 136 67
3 122 136 75
3 73 133 102
3 34 138 33
3 98 128 108
3 102 136 82
3 67 136 102
3 50 137 51
3 65 125 105
3 109 129 76
3 109 124 60
3 82 136 122
3 70 130 110
3 110 130 32
3 57 127 117
3 9 126 116
3 112 132 5
3 116 126 78
3 117 127 87
3 22 132 119

CELL_TYPES 225
5
5
5
5
5
5
5
5
5
5
5
5
5
5
5
5
5
5
5
5
5
5
5
5
5
5
5
5
5
5
5
5
5
5
5
5
5
5
5
5
5
5
5
5
5
5
5
5
5
5
5
5
5
5
5
5
5
5
5
5
5
5
5
5
5
5
5
5
5
5
5
5
5
5
5
5
5
5
5
5
5
5
5
5
5
5
5
5
5
5
5
5
5
5
5
5
5
5
5
5
5
5
5
5
5
5
5
5
5
5
5
5
5
5
5
5
5
5
5
5
5
5
5
5
5
5
5
5
5
5
5
5
5
5
5
5
5
5
5
5
5
5
5
5
5
5
5
5
5
5
5
5
5
5
5
5
5
5
5
5
5
5
5
5
5
5
5
5
5
5
5
5
5
5
5
5
5
5
5
5
5
5
5
5
5
5
5
5
5
5
5
5
5
5
5
5
5
5
5
5
5
5
5
5
5
5
5
5
5
5
5
5
5
5
5
5
5
5
5
5
5
5
5
5
5

CELL_DATA 225
SCALARS CellEntityIds int 1
LOOKUP_TABLE default
1
1
1
1
1
1
1
1
1
1
1
1
1
1
1
1
1
1
1
1
1
1
1
1
1
1
1
1
1
1
1
1
1
1
1
1
1
1
1
1
1
1
1
1
1
1
1
1
1
1
1
1
1
1
1
1
1
1
1
1
1
1
1
1
1
1
1
1
1
1
1
1
1
1
1
1
1
1
1
1
1
1
1
1
1
1
1
1
1
1
1
1
1
1
1
1
1
1
1
1
1
1
1
1
1
1
1
1
1
1
1
1
1
1
1
1
1
1
1
1
1
1
1
1
1
1
1
1
1
1
1
1
1
1
1
1
1
1
1
1
1
1
1
1
1
1
1
1
1
1
1
1
1
1
1
1
1
1
1
1
1
1
1
1
1
1
1
1
1
1
1
1
1
1
1
1
1
1
1
1
1
1
1
1
1
1
1
1
1
1
1
1
1
1
1
1
1
1
1
1
1
1
1
1
1
1
1
1
1
1
1
1
1
1
1
1
1
1
1
1
1
1
1
1
1
